768
Lattice="1.999999943e-9 0.000000000e0 0.000000000e0 0.000000000e0 1.999999943e-9 0.000000000e0 0.000000000e0 0.000000000e0 7.999999774e-9" Properties=species:S:1:pos:R:3:image:I:3 Step=0 Time=0.000000000e0
O -7.500000065e-10 -7.500000065e-10 -3.749999866e-9 0 0 0
H -6.499999983e-10 -7.500000065e-10 -3.749999866e-9 0 0 0
H -7.833313442e-10 -6.557183685e-10 -3.749999866e-9 0 0 0
O -7.500000065e-10 -7.500000065e-10 -3.250000047e-9 0 0 0
H -6.499999983e-10 -7.500000065e-10 -3.250000047e-9 0 0 0
H -7.833313442e-10 -6.557183685e-10 -3.250000047e-9 0 0 0
O -7.500000065e-10 -7.500000065e-10 -2.750000005e-9 0 0 0
H -6.499999983e-10 -7.500000065e-10 -2.750000005e-9 0 0 0
H -7.833313442e-10 -6.557183685e-10 -2.750000005e-9 0 0 0
O -7.500000065e-10 -7.500000065e-10 -2.249999964e-9 0 0 0
H -6.499999983e-10 -7.500000065e-10 -2.249999964e-9 0 0 0
H -7.833313442e-10 -6.557183685e-10 -2.249999964e-9 0 0 0
O -7.500000065e-10 -7.500000065e-10 -1.750000034e-9 0 0 0
H -6.499999983e-10 -7.500000065e-10 -1.750000034e-9 0 0 0
H -7.833313442e-10 -6.557183685e-10 -1.750000034e-9 0 0 0
O -7.500000065e-10 -7.500000065e-10 -1.249999992e-9 0 0 0
H -6.499999983e-10 -7.500000065e-10 -1.249999992e-9 0 0 0
H -7.833313442e-10 -6.557183685e-10 -1.249999992e-9 0 0 0
O -7.500000065e-10 -7.500000065e-10 -7.500000065e-10 0 0 0
H -6.499999983e-10 -7.500000065e-10 -7.500000065e-10 0 0 0
H -7.833313442e-10 -6.557183685e-10 -7.500000065e-10 0 0 0
O -7.500000065e-10 -7.500000065e-10 -2.499999929e-10 0 0 0
H -6.499999983e-10 -7.500000065e-10 -2.499999929e-10 0 0 0
H -7.833313442e-10 -6.557183685e-10 -2.499999929e-10 0 0 0
O -7.500000065e-10 -7.500000065e-10 2.499999929e-10 0 0 0
H -6.499999983e-10 -7.500000065e-10 2.499999929e-10 0 0 0
H -7.833313442e-10 -6.557183685e-10 2.499999929e-10 0 0 0
O -7.500000065e-10 -7.500000065e-10 7.500000065e-10 0 0 0
H -6.499999983e-10 -7.500000065e-10 7.500000065e-10 0 0 0
H -7.833313442e-10 -6.557183685e-10 7.500000065e-10 0 0 0
O -7.500000065e-10 -7.500000065e-10 1.249999992e-9 0 0 0
H -6.499999983e-10 -7.500000065e-10 1.249999992e-9 0 0 0
H -7.833313442e-10 -6.557183685e-10 1.249999992e-9 0 0 0
O -7.500000065e-10 -7.500000065e-10 1.750000034e-9 0 0 0
H -6.499999983e-10 -7.500000065e-10 1.750000034e-9 0 0 0
H -7.833313442e-10 -6.557183685e-10 1.750000034e-9 0 0 0
O -7.500000065e-10 -7.500000065e-10 2.249999964e-9 0 0 0
H -6.499999983e-10 -7.500000065e-10 2.249999964e-9 0 0 0
H -7.833313442e-10 -6.557183685e-10 2.249999964e-9 0 0 0
O -7.500000065e-10 -7.500000065e-10 2.750000005e-9 0 0 0
H -6.499999983e-10 -7.500000065e-10 2.750000005e-9 0 0 0
H -7.833313442e-10 -6.557183685e-10 2.750000005e-9 0 0 0
O -7.500000065e-10 -7.500000065e-10 3.250000047e-9 0 0 0
H -6.499999983e-10 -7.500000065e-10 3.250000047e-9 0 0 0
H -7.833313442e-10 -6.557183685e-10 3.250000047e-9 0 0 0
O -7.500000065e-10 -7.500000065e-10 3.749999866e-9 0 0 0
H -6.499999983e-10 -7.500000065e-10 3.749999866e-9 0 0 0
H -7.833313442e-10 -6.557183685e-10 3.749999866e-9 0 0 0
O -7.500000065e-10 -2.499999929e-10 -3.749999866e-9 0 0 0
H -6.499999983e-10 -2.499999929e-10 -3.749999866e-9 0 0 0
H -7.833313442e-10 -1.557183826e-10 -3.749999866e-9 0 0 0
O -7.500000065e-10 -2.499999929e-10 -3.250000047e-9 0 0 0
H -6.499999983e-10 -2.499999929e-10 -3.250000047e-9 0 0 0
H -7.833313442e-10 -1.557183826e-10 -3.250000047e-9 0 0 0
O -7.500000065e-10 -2.499999929e-10 -2.750000005e-9 0 0 0
H -6.499999983e-10 -2.499999929e-10 -2.750000005e-9 0 0 0
H -7.833313442e-10 -1.557183826e-10 -2.750000005e-9 0 0 0
O -7.500000065e-10 -2.499999929e-10 -2.249999964e-9 0 0 0
H -6.499999983e-10 -2.499999929e-10 -2.249999964e-9 0 0 0
H -7.833313442e-10 -1.557183826e-10 -2.249999964e-9 0 0 0
O -7.500000065e-10 -2.499999929e-10 -1.750000034e-9 0 0 0
H -6.499999983e-10 -2.499999929e-10 -1.750000034e-9 0 0 0
H -7.833313442e-10 -1.557183826e-10 -1.750000034e-9 0 0 0
O -7.500000065e-10 -2.499999929e-10 -1.249999992e-9 0 0 0
H -6.499999983e-10 -2.499999929e-10 -1.249999992e-9 0 0 0
H -7.833313442e-10 -1.557183826e-10 -1.249999992e-9 0 0 0
O -7.500000065e-10 -2.499999929e-10 -7.500000065e-10 0 0 0
H -6.499999983e-10 -2.499999929e-10 -7.500000065e-10 0 0 0
H -7.833313442e-10 -1.557183826e-10 -7.500000065e-10 0 0 0
O -7.500000065e-10 -2.499999929e-10 -2.499999929e-10 0 0 0
H -6.499999983e-10 -2.499999929e-10 -2.499999929e-10 0 0 0
H -7.833313442e-10 -1.557183826e-10 -2.499999929e-10 0 0 0
O -7.500000065e-10 -2.499999929e-10 2.499999929e-10 0 0 0
H -6.499999983e-10 -2.499999929e-10 2.499999929e-10 0 0 0
H -7.833313442e-10 -1.557183826e-10 2.499999929e-10 0 0 0
O -7.500000065e-10 -2.499999929e-10 7.500000065e-10 0 0 0
H -6.499999983e-10 -2.499999929e-10 7.500000065e-10 0 0 0
H -7.833313442e-10 -1.557183826e-10 7.500000065e-10 0 0 0
O -7.500000065e-10 -2.499999929e-10 1.249999992e-9 0 0 0
H -6.499999983e-10 -2.499999929e-10 1.249999992e-9 0 0 0
H -7.833313442e-10 -1.557183826e-10 1.249999992e-9 0 0 0
O -7.500000065e-10 -2.499999929e-10 1.750000034e-9 0 0 0
H -6.499999983e-10 -2.499999929e-10 1.750000034e-9 0 0 0
H -7.833313442e-10 -1.557183826e-10 1.750000034e-9 0 0 0
O -7.500000065e-10 -2.499999929e-10 2.249999964e-9 0 0 0
H -6.499999983e-10 -2.499999929e-10 2.249999964e-9 0 0 0
H -7.833313442e-10 -1.557183826e-10 2.249999964e-9 0 0 0
O -7.500000065e-10 -2.499999929e-10 2.750000005e-9 0 0 0
H -6.499999983e-10 -2.499999929e-10 2.750000005e-9 0 0 0
H -7.833313442e-10 -1.557183826e-10 2.750000005e-9 0 0 0
O -7.500000065e-10 -2.499999929e-10 3.250000047e-9 0 0 0
H -6.499999983e-10 -2.499999929e-10 3.250000047e-9 0 0 0
H -7.833313442e-10 -1.557183826e-10 3.250000047e-9 0 0 0
O -7.500000065e-10 -2.499999929e-10 3.749999866e-9 0 0 0
H -6.499999983e-10 -2.499999929e-10 3.749999866e-9 0 0 0
H -7.833313442e-10 -1.557183826e-10 3.749999866e-9 0 0 0
O -7.500000065e-10 2.499999929e-10 -3.749999866e-9 0 0 0
H -6.499999983e-10 2.499999929e-10 -3.749999866e-9 0 0 0
H -7.833313442e-10 3.442816032e-10 -3.749999866e-9 0 0 0
O -7.500000065e-10 2.499999929e-10 -3.250000047e-9 0 0 0
H -6.499999983e-10 2.499999929e-10 -3.250000047e-9 0 0 0
H -7.833313442e-10 3.442816032e-10 -3.250000047e-9 0 0 0
O -7.500000065e-10 2.499999929e-10 -2.750000005e-9 0 0 0
H -6.499999983e-10 2.499999929e-10 -2.750000005e-9 0 0 0
H -7.833313442e-10 3.442816032e-10 -2.750000005e-9 0 0 0
O -7.500000065e-10 2.499999929e-10 -2.249999964e-9 0 0 0
H -6.499999983e-10 2.499999929e-10 -2.249999964e-9 0 0 0
H -7.833313442e-10 3.442816032e-10 -2.249999964e-9 0 0 0
O -7.500000065e-10 2.499999929e-10 -1.750000034e-9 0 0 0
H -6.499999983e-10 2.499999929e-10 -1.750000034e-9 0 0 0
H -7.833313442e-10 3.442816032e-10 -1.750000034e-9 0 0 0
O -7.500000065e-10 2.499999929e-10 -1.249999992e-9 0 0 0
H -6.499999983e-10 2.499999929e-10 -1.249999992e-9 0 0 0
H -7.833313442e-10 3.442816032e-10 -1.249999992e-9 0 0 0
O -7.500000065e-10 2.499999929e-10 -7.500000065e-10 0 0 0
H -6.499999983e-10 2.499999929e-10 -7.500000065e-10 0 0 0
H -7.833313442e-10 3.442816032e-10 -7.500000065e-10 0 0 0
O -7.500000065e-10 2.499999929e-10 -2.499999929e-10 0 0 0
H -6.499999983e-10 2.499999929e-10 -2.499999929e-10 0 0 0
H -7.833313442e-10 3.442816032e-10 -2.499999929e-10 0 0 0
O -7.500000065e-10 2.499999929e-10 2.499999929e-10 0 0 0
H -6.499999983e-10 2.499999929e-10 2.499999929e-10 0 0 0
H -7.833313442e-10 3.442816032e-10 2.499999929e-10 0 0 0
O -7.500000065e-10 2.499999929e-10 7.500000065e-10 0 0 0
H -6.499999983e-10 2.499999929e-10 7.500000065e-10 0 0 0
H -7.833313442e-10 3.442816032e-10 7.500000065e-10 0 0 0
O -7.500000065e-10 2.499999929e-10 1.249999992e-9 0 0 0
H -6.499999983e-10 2.499999929e-10 1.249999992e-9 0 0 0
H -7.833313442e-10 3.442816032e-10 1.249999992e-9 0 0 0
O -7.500000065e-10 2.499999929e-10 1.750000034e-9 0 0 0
H -6.499999983e-10 2.499999929e-10 1.750000034e-9 0 0 0
H -7.833313442e-10 3.442816032e-10 1.750000034e-9 0 0 0
O -7.500000065e-10 2.499999929e-10 2.249999964e-9 0 0 0
H -6.499999983e-10 2.499999929e-10 2.249999964e-9 0 0 0
H -7.833313442e-10 3.442816032e-10 2.249999964e-9 0 0 0
O -7.500000065e-10 2.499999929e-10 2.750000005e-9 0 0 0
H -6.499999983e-10 2.499999929e-10 2.750000005e-9 0 0 0
H -7.833313442e-10 3.442816032e-10 2.750000005e-9 0 0 0
O -7.500000065e-10 2.499999929e-10 3.250000047e-9 0 0 0
H -6.499999983e-10 2.499999929e-10 3.250000047e-9 0 0 0
H -7.833313442e-10 3.442816032e-10 3.250000047e-9 0 0 0
O -7.500000065e-10 2.499999929e-10 3.749999866e-9 0 0 0
H -6.499999983e-10 2.499999929e-10 3.749999866e-9 0 0 0
H -7.833313442e-10 3.442816032e-10 3.749999866e-9 0 0 0
O -7.500000065e-10 7.500000065e-10 -3.749999866e-9 0 0 0
H -6.499999983e-10 7.500000065e-10 -3.749999866e-9 0 0 0
H -7.833313442e-10 8.442815891e-10 -3.749999866e-9 0 0 0
O -7.500000065e-10 7.500000065e-10 -3.250000047e-9 0 0 0
H -6.499999983e-10 7.500000065e-10 -3.250000047e-9 0 0 0
H -7.833313442e-10 8.442815891e-10 -3.250000047e-9 0 0 0
O -7.500000065e-10 7.500000065e-10 -2.750000005e-9 0 0 0
H -6.499999983e-10 7.500000065e-10 -2.750000005e-9 0 0 0
H -7.833313442e-10 8.442815891e-10 -2.750000005e-9 0 0 0
O -7.500000065e-10 7.500000065e-10 -2.249999964e-9 0 0 0
H -6.499999983e-10 7.500000065e-10 -2.249999964e-9 0 0 0
H -7.833313442e-10 8.442815891e-10 -2.249999964e-9 0 0 0
O -7.500000065e-10 7.500000065e-10 -1.750000034e-9 0 0 0
H -6.499999983e-10 7.500000065e-10 -1.750000034e-9 0 0 0
H -7.833313442e-10 8.442815891e-10 -1.750000034e-9 0 0 0
O -7.500000065e-10 7.500000065e-10 -1.249999992e-9 0 0 0
H -6.499999983e-10 7.500000065e-10 -1.249999992e-9 0 0 0
H -7.833313442e-10 8.442815891e-10 -1.249999992e-9 0 0 0
O -7.500000065e-10 7.500000065e-10 -7.500000065e-10 0 0 0
H -6.499999983e-10 7.500000065e-10 -7.500000065e-10 0 0 0
H -7.833313442e-10 8.442815891e-10 -7.500000065e-10 0 0 0
O -7.500000065e-10 7.500000065e-10 -2.499999929e-10 0 0 0
H -6.499999983e-10 7.500000065e-10 -2.499999929e-10 0 0 0
H -7.833313442e-10 8.442815891e-10 -2.499999929e-10 0 0 0
O -7.500000065e-10 7.500000065e-10 2.499999929e-10 0 0 0
H -6.499999983e-10 7.500000065e-10 2.499999929e-10 0 0 0
H -7.833313442e-10 8.442815891e-10 2.499999929e-10 0 0 0
O -7.500000065e-10 7.500000065e-10 7.500000065e-10 0 0 0
H -6.499999983e-10 7.500000065e-10 7.500000065e-10 0 0 0
H -7.833313442e-10 8.442815891e-10 7.500000065e-10 0 0 0
O -7.500000065e-10 7.500000065e-10 1.249999992e-9 0 0 0
H -6.499999983e-10 7.500000065e-10 1.249999992e-9 0 0 0
H -7.833313442e-10 8.442815891e-10 1.249999992e-9 0 0 0
O -7.500000065e-10 7.500000065e-10 1.750000034e-9 0 0 0
H -6.499999983e-10 7.500000065e-10 1.750000034e-9 0 0 0
H -7.833313442e-10 8.442815891e-10 1.750000034e-9 0 0 0
O -7.500000065e-10 7.500000065e-10 2.249999964e-9 0 0 0
H -6.499999983e-10 7.500000065e-10 2.249999964e-9 0 0 0
H -7.833313442e-10 8.442815891e-10 2.249999964e-9 0 0 0
O -7.500000065e-10 7.500000065e-10 2.750000005e-9 0 0 0
H -6.499999983e-10 7.500000065e-10 2.750000005e-9 0 0 0
H -7.833313442e-10 8.442815891e-10 2.750000005e-9 0 0 0
O -7.500000065e-10 7.500000065e-10 3.250000047e-9 0 0 0
H -6.499999983e-10 7.500000065e-10 3.250000047e-9 0 0 0
H -7.833313442e-10 8.442815891e-10 3.250000047e-9 0 0 0
O -7.500000065e-10 7.500000065e-10 3.749999866e-9 0 0 0
H -6.499999983e-10 7.500000065e-10 3.749999866e-9 0 0 0
H -7.833313442e-10 8.442815891e-10 3.749999866e-9 0 0 0
O -2.499999929e-10 -7.500000065e-10 -3.749999866e-9 0 0 0
H -1.499999985e-10 -7.500000065e-10 -3.749999866e-9 0 0 0
H -2.833313306e-10 -6.557183685e-10 -3.749999866e-9 0 0 0
O -2.499999929e-10 -7.500000065e-10 -3.250000047e-9 0 0 0
H -1.499999985e-10 -7.500000065e-10 -3.250000047e-9 0 0 0
H -2.833313306e-10 -6.557183685e-10 -3.250000047e-9 0 0 0
O -2.499999929e-10 -7.500000065e-10 -2.750000005e-9 0 0 0
H -1.499999985e-10 -7.500000065e-10 -2.750000005e-9 0 0 0
H -2.833313306e-10 -6.557183685e-10 -2.750000005e-9 0 0 0
O -2.499999929e-10 -7.500000065e-10 -2.249999964e-9 0 0 0
H -1.499999985e-10 -7.500000065e-10 -2.249999964e-9 0 0 0
H -2.833313306e-10 -6.557183685e-10 -2.249999964e-9 0 0 0
O -2.499999929e-10 -7.500000065e-10 -1.750000034e-9 0 0 0
H -1.499999985e-10 -7.500000065e-10 -1.750000034e-9 0 0 0
H -2.833313306e-10 -6.557183685e-10 -1.750000034e-9 0 0 0
O -2.499999929e-10 -7.500000065e-10 -1.249999992e-9 0 0 0
H -1.499999985e-10 -7.500000065e-10 -1.249999992e-9 0 0 0
H -2.833313306e-10 -6.557183685e-10 -1.249999992e-9 0 0 0
O -2.499999929e-10 -7.500000065e-10 -7.500000065e-10 0 0 0
H -1.499999985e-10 -7.500000065e-10 -7.500000065e-10 0 0 0
H -2.833313306e-10 -6.557183685e-10 -7.500000065e-10 0 0 0
O -2.499999929e-10 -7.500000065e-10 -2.499999929e-10 0 0 0
H -1.499999985e-10 -7.500000065e-10 -2.499999929e-10 0 0 0
H -2.833313306e-10 -6.557183685e-10 -2.499999929e-10 0 0 0
O -2.499999929e-10 -7.500000065e-10 2.499999929e-10 0 0 0
H -1.499999985e-10 -7.500000065e-10 2.499999929e-10 0 0 0
H -2.833313306e-10 -6.557183685e-10 2.499999929e-10 0 0 0
O -2.499999929e-10 -7.500000065e-10 7.500000065e-10 0 0 0
H -1.499999985e-10 -7.500000065e-10 7.500000065e-10 0 0 0
H -2.833313306e-10 -6.557183685e-10 7.500000065e-10 0 0 0
O -2.499999929e-10 -7.500000065e-10 1.249999992e-9 0 0 0
H -1.499999985e-10 -7.500000065e-10 1.249999992e-9 0 0 0
H -2.833313306e-10 -6.557183685e-10 1.249999992e-9 0 0 0
O -2.499999929e-10 -7.500000065e-10 1.750000034e-9 0 0 0
H -1.499999985e-10 -7.500000065e-10 1.750000034e-9 0 0 0
H -2.833313306e-10 -6.557183685e-10 1.750000034e-9 0 0 0
O -2.499999929e-10 -7.500000065e-10 2.249999964e-9 0 0 0
H -1.499999985e-10 -7.500000065e-10 2.249999964e-9 0 0 0
H -2.833313306e-10 -6.557183685e-10 2.249999964e-9 0 0 0
O -2.499999929e-10 -7.500000065e-10 2.750000005e-9 0 0 0
H -1.499999985e-10 -7.500000065e-10 2.750000005e-9 0 0 0
H -2.833313306e-10 -6.557183685e-10 2.750000005e-9 0 0 0
O -2.499999929e-10 -7.500000065e-10 3.250000047e-9 0 0 0
H -1.499999985e-10 -7.500000065e-10 3.250000047e-9 0 0 0
H -2.833313306e-10 -6.557183685e-10 3.250000047e-9 0 0 0
O -2.499999929e-10 -7.500000065e-10 3.749999866e-9 0 0 0
H -1.499999985e-10 -7.500000065e-10 3.749999866e-9 0 0 0
H -2.833313306e-10 -6.557183685e-10 3.749999866e-9 0 0 0
O -2.499999929e-10 -2.499999929e-10 -3.749999866e-9 0 0 0
H -1.499999985e-10 -2.499999929e-10 -3.749999866e-9 0 0 0
H -2.833313306e-10 -1.557183826e-10 -3.749999866e-9 0 0 0
O -2.499999929e-10 -2.499999929e-10 -3.250000047e-9 0 0 0
H -1.499999985e-10 -2.499999929e-10 -3.250000047e-9 0 0 0
H -2.833313306e-10 -1.557183826e-10 -3.250000047e-9 0 0 0
O -2.499999929e-10 -2.499999929e-10 -2.750000005e-9 0 0 0
H -1.499999985e-10 -2.499999929e-10 -2.750000005e-9 0 0 0
H -2.833313306e-10 -1.557183826e-10 -2.750000005e-9 0 0 0
O -2.499999929e-10 -2.499999929e-10 -2.249999964e-9 0 0 0
H -1.499999985e-10 -2.499999929e-10 -2.249999964e-9 0 0 0
H -2.833313306e-10 -1.557183826e-10 -2.249999964e-9 0 0 0
O -2.499999929e-10 -2.499999929e-10 -1.750000034e-9 0 0 0
H -1.499999985e-10 -2.499999929e-10 -1.750000034e-9 0 0 0
H -2.833313306e-10 -1.557183826e-10 -1.750000034e-9 0 0 0
O -2.499999929e-10 -2.499999929e-10 -1.249999992e-9 0 0 0
H -1.499999985e-10 -2.499999929e-10 -1.249999992e-9 0 0 0
H -2.833313306e-10 -1.557183826e-10 -1.249999992e-9 0 0 0
O -2.499999929e-10 -2.499999929e-10 -7.500000065e-10 0 0 0
H -1.499999985e-10 -2.499999929e-10 -7.500000065e-10 0 0 0
H -2.833313306e-10 -1.557183826e-10 -7.500000065e-10 0 0 0
O -2.499999929e-10 -2.499999929e-10 -2.499999929e-10 0 0 0
H -1.499999985e-10 -2.499999929e-10 -2.499999929e-10 0 0 0
H -2.833313306e-10 -1.557183826e-10 -2.499999929e-10 0 0 0
O -2.499999929e-10 -2.499999929e-10 2.499999929e-10 0 0 0
H -1.499999985e-10 -2.499999929e-10 2.499999929e-10 0 0 0
H -2.833313306e-10 -1.557183826e-10 2.499999929e-10 0 0 0
O -2.499999929e-10 -2.499999929e-10 7.500000065e-10 0 0 0
H -1.499999985e-10 -2.499999929e-10 7.500000065e-10 0 0 0
H -2.833313306e-10 -1.557183826e-10 7.500000065e-10 0 0 0
O -2.499999929e-10 -2.499999929e-10 1.249999992e-9 0 0 0
H -1.499999985e-10 -2.499999929e-10 1.249999992e-9 0 0 0
H -2.833313306e-10 -1.557183826e-10 1.249999992e-9 0 0 0
O -2.499999929e-10 -2.499999929e-10 1.750000034e-9 0 0 0
H -1.499999985e-10 -2.499999929e-10 1.750000034e-9 0 0 0
H -2.833313306e-10 -1.557183826e-10 1.750000034e-9 0 0 0
O -2.499999929e-10 -2.499999929e-10 2.249999964e-9 0 0 0
H -1.499999985e-10 -2.499999929e-10 2.249999964e-9 0 0 0
H -2.833313306e-10 -1.557183826e-10 2.249999964e-9 0 0 0
O -2.499999929e-10 -2.499999929e-10 2.750000005e-9 0 0 0
H -1.499999985e-10 -2.499999929e-10 2.750000005e-9 0 0 0
H -2.833313306e-10 -1.557183826e-10 2.750000005e-9 0 0 0
O -2.499999929e-10 -2.499999929e-10 3.250000047e-9 0 0 0
H -1.499999985e-10 -2.499999929e-10 3.250000047e-9 0 0 0
H -2.833313306e-10 -1.557183826e-10 3.250000047e-9 0 0 0
O -2.499999929e-10 -2.499999929e-10 3.749999866e-9 0 0 0
H -1.499999985e-10 -2.499999929e-10 3.749999866e-9 0 0 0
H -2.833313306e-10 -1.557183826e-10 3.749999866e-9 0 0 0
O -2.499999929e-10 2.499999929e-10 -3.749999866e-9 0 0 0
H -1.499999985e-10 2.499999929e-10 -3.749999866e-9 0 0 0
H -2.833313306e-10 3.442816032e-10 -3.749999866e-9 0 0 0
O -2.499999929e-10 2.499999929e-10 -3.250000047e-9 0 0 0
H -1.499999985e-10 2.499999929e-10 -3.250000047e-9 0 0 0
H -2.833313306e-10 3.442816032e-10 -3.250000047e-9 0 0 0
O -2.499999929e-10 2.499999929e-10 -2.750000005e-9 0 0 0
H -1.499999985e-10 2.499999929e-10 -2.750000005e-9 0 0 0
H -2.833313306e-10 3.442816032e-10 -2.750000005e-9 0 0 0
O -2.499999929e-10 2.499999929e-10 -2.249999964e-9 0 0 0
H -1.499999985e-10 2.499999929e-10 -2.249999964e-9 0 0 0
H -2.833313306e-10 3.442816032e-10 -2.249999964e-9 0 0 0
O -2.499999929e-10 2.499999929e-10 -1.750000034e-9 0 0 0
H -1.499999985e-10 2.499999929e-10 -1.750000034e-9 0 0 0
H -2.833313306e-10 3.442816032e-10 -1.750000034e-9 0 0 0
O -2.499999929e-10 2.499999929e-10 -1.249999992e-9 0 0 0
H -1.499999985e-10 2.499999929e-10 -1.249999992e-9 0 0 0
H -2.833313306e-10 3.442816032e-10 -1.249999992e-9 0 0 0
O -2.499999929e-10 2.499999929e-10 -7.500000065e-10 0 0 0
H -1.499999985e-10 2.499999929e-10 -7.500000065e-10 0 0 0
H -2.833313306e-10 3.442816032e-10 -7.500000065e-10 0 0 0
O -2.499999929e-10 2.499999929e-10 -2.499999929e-10 0 0 0
H -1.499999985e-10 2.499999929e-10 -2.499999929e-10 0 0 0
H -2.833313306e-10 3.442816032e-10 -2.499999929e-10 0 0 0
O -2.499999929e-10 2.499999929e-10 2.499999929e-10 0 0 0
H -1.499999985e-10 2.499999929e-10 2.499999929e-10 0 0 0
H -2.833313306e-10 3.442816032e-10 2.499999929e-10 0 0 0
O -2.499999929e-10 2.499999929e-10 7.500000065e-10 0 0 0
H -1.499999985e-10 2.499999929e-10 7.500000065e-10 0 0 0
H -2.833313306e-10 3.442816032e-10 7.500000065e-10 0 0 0
O -2.499999929e-10 2.499999929e-10 1.249999992e-9 0 0 0
H -1.499999985e-10 2.499999929e-10 1.249999992e-9 0 0 0
H -2.833313306e-10 3.442816032e-10 1.249999992e-9 0 0 0
O -2.499999929e-10 2.499999929e-10 1.750000034e-9 0 0 0
H -1.499999985e-10 2.499999929e-10 1.750000034e-9 0 0 0
H -2.833313306e-10 3.442816032e-10 1.750000034e-9 0 0 0
O -2.499999929e-10 2.499999929e-10 2.249999964e-9 0 0 0
H -1.499999985e-10 2.499999929e-10 2.249999964e-9 0 0 0
H -2.833313306e-10 3.442816032e-10 2.249999964e-9 0 0 0
O -2.499999929e-10 2.499999929e-10 2.750000005e-9 0 0 0
H -1.499999985e-10 2.499999929e-10 2.750000005e-9 0 0 0
H -2.833313306e-10 3.442816032e-10 2.750000005e-9 0 0 0
O -2.499999929e-10 2.499999929e-10 3.250000047e-9 0 0 0
H -1.499999985e-10 2.499999929e-10 3.250000047e-9 0 0 0
H -2.833313306e-10 3.442816032e-10 3.250000047e-9 0 0 0
O -2.499999929e-10 2.499999929e-10 3.749999866e-9 0 0 0
H -1.499999985e-10 2.499999929e-10 3.749999866e-9 0 0 0
H -2.833313306e-10 3.442816032e-10 3.749999866e-9 0 0 0
O -2.499999929e-10 7.500000065e-10 -3.749999866e-9 0 0 0
H -1.499999985e-10 7.500000065e-10 -3.749999866e-9 0 0 0
H -2.833313306e-10 8.442815891e-10 -3.749999866e-9 0 0 0
O -2.499999929e-10 7.500000065e-10 -3.250000047e-9 0 0 0
H -1.499999985e-10 7.500000065e-10 -3.250000047e-9 0 0 0
H -2.833313306e-10 8.442815891e-10 -3.250000047e-9 0 0 0
O -2.499999929e-10 7.500000065e-10 -2.750000005e-9 0 0 0
H -1.499999985e-10 7.500000065e-10 -2.750000005e-9 0 0 0
H -2.833313306e-10 8.442815891e-10 -2.750000005e-9 0 0 0
O -2.499999929e-10 7.500000065e-10 -2.249999964e-9 0 0 0
H -1.499999985e-10 7.500000065e-10 -2.249999964e-9 0 0 0
H -2.833313306e-10 8.442815891e-10 -2.249999964e-9 0 0 0
O -2.499999929e-10 7.500000065e-10 -1.750000034e-9 0 0 0
H -1.499999985e-10 7.500000065e-10 -1.750000034e-9 0 0 0
H -2.833313306e-10 8.442815891e-10 -1.750000034e-9 0 0 0
O -2.499999929e-10 7.500000065e-10 -1.249999992e-9 0 0 0
H -1.499999985e-10 7.500000065e-10 -1.249999992e-9 0 0 0
H -2.833313306e-10 8.442815891e-10 -1.249999992e-9 0 0 0
O -2.499999929e-10 7.500000065e-10 -7.500000065e-10 0 0 0
H -1.499999985e-10 7.500000065e-10 -7.500000065e-10 0 0 0
H -2.833313306e-10 8.442815891e-10 -7.500000065e-10 0 0 0
O -2.499999929e-10 7.500000065e-10 -2.499999929e-10 0 0 0
H -1.499999985e-10 7.500000065e-10 -2.499999929e-10 0 0 0
H -2.833313306e-10 8.442815891e-10 -2.499999929e-10 0 0 0
O -2.499999929e-10 7.500000065e-10 2.499999929e-10 0 0 0
H -1.499999985e-10 7.500000065e-10 2.499999929e-10 0 0 0
H -2.833313306e-10 8.442815891e-10 2.499999929e-10 0 0 0
O -2.499999929e-10 7.500000065e-10 7.500000065e-10 0 0 0
H -1.499999985e-10 7.500000065e-10 7.500000065e-10 0 0 0
H -2.833313306e-10 8.442815891e-10 7.500000065e-10 0 0 0
O -2.499999929e-10 7.500000065e-10 1.249999992e-9 0 0 0
H -1.499999985e-10 7.500000065e-10 1.249999992e-9 0 0 0
H -2.833313306e-10 8.442815891e-10 1.249999992e-9 0 0 0
O -2.499999929e-10 7.500000065e-10 1.750000034e-9 0 0 0
H -1.499999985e-10 7.500000065e-10 1.750000034e-9 0 0 0
H -2.833313306e-10 8.442815891e-10 1.750000034e-9 0 0 0
O -2.499999929e-10 7.500000065e-10 2.249999964e-9 0 0 0
H -1.499999985e-10 7.500000065e-10 2.249999964e-9 0 0 0
H -2.833313306e-10 8.442815891e-10 2.249999964e-9 0 0 0
O -2.499999929e-10 7.500000065e-10 2.750000005e-9 0 0 0
H -1.499999985e-10 7.500000065e-10 2.750000005e-9 0 0 0
H -2.833313306e-10 8.442815891e-10 2.750000005e-9 0 0 0
O -2.499999929e-10 7.500000065e-10 3.250000047e-9 0 0 0
H -1.499999985e-10 7.500000065e-10 3.250000047e-9 0 0 0
H -2.833313306e-10 8.442815891e-10 3.250000047e-9 0 0 0
O -2.499999929e-10 7.500000065e-10 3.749999866e-9 0 0 0
H -1.499999985e-10 7.500000065e-10 3.749999866e-9 0 0 0
H -2.833313306e-10 8.442815891e-10 3.749999866e-9 0 0 0
O 2.499999929e-10 -7.500000065e-10 -3.749999866e-9 0 0 0
H 3.500000012e-10 -7.500000065e-10 -3.749999866e-9 0 0 0
H 2.166686691e-10 -6.557183685e-10 -3.749999866e-9 0 0 0
O 2.499999929e-10 -7.500000065e-10 -3.250000047e-9 0 0 0
H 3.500000012e-10 -7.500000065e-10 -3.250000047e-9 0 0 0
H 2.166686691e-10 -6.557183685e-10 -3.250000047e-9 0 0 0
O 2.499999929e-10 -7.500000065e-10 -2.750000005e-9 0 0 0
H 3.500000012e-10 -7.500000065e-10 -2.750000005e-9 0 0 0
H 2.166686691e-10 -6.557183685e-10 -2.750000005e-9 0 0 0
O 2.499999929e-10 -7.500000065e-10 -2.249999964e-9 0 0 0
H 3.500000012e-10 -7.500000065e-10 -2.249999964e-9 0 0 0
H 2.166686691e-10 -6.557183685e-10 -2.249999964e-9 0 0 0
O 2.499999929e-10 -7.500000065e-10 -1.750000034e-9 0 0 0
H 3.500000012e-10 -7.500000065e-10 -1.750000034e-9 0 0 0
H 2.166686691e-10 -6.557183685e-10 -1.750000034e-9 0 0 0
O 2.499999929e-10 -7.500000065e-10 -1.249999992e-9 0 0 0
H 3.500000012e-10 -7.500000065e-10 -1.249999992e-9 0 0 0
H 2.166686691e-10 -6.557183685e-10 -1.249999992e-9 0 0 0
O 2.499999929e-10 -7.500000065e-10 -7.500000065e-10 0 0 0
H 3.500000012e-10 -7.500000065e-10 -7.500000065e-10 0 0 0
H 2.166686691e-10 -6.557183685e-10 -7.500000065e-10 0 0 0
O 2.499999929e-10 -7.500000065e-10 -2.499999929e-10 0 0 0
H 3.500000012e-10 -7.500000065e-10 -2.499999929e-10 0 0 0
H 2.166686691e-10 -6.557183685e-10 -2.499999929e-10 0 0 0
O 2.499999929e-10 -7.500000065e-10 2.499999929e-10 0 0 0
H 3.500000012e-10 -7.500000065e-10 2.499999929e-10 0 0 0
H 2.166686691e-10 -6.557183685e-10 2.499999929e-10 0 0 0
O 2.499999929e-10 -7.500000065e-10 7.500000065e-10 0 0 0
H 3.500000012e-10 -7.500000065e-10 7.500000065e-10 0 0 0
H 2.166686691e-10 -6.557183685e-10 7.500000065e-10 0 0 0
O 2.499999929e-10 -7.500000065e-10 1.249999992e-9 0 0 0
H 3.500000012e-10 -7.500000065e-10 1.249999992e-9 0 0 0
H 2.166686691e-10 -6.557183685e-10 1.249999992e-9 0 0 0
O 2.499999929e-10 -7.500000065e-10 1.750000034e-9 0 0 0
H 3.500000012e-10 -7.500000065e-10 1.750000034e-9 0 0 0
H 2.166686691e-10 -6.557183685e-10 1.750000034e-9 0 0 0
O 2.499999929e-10 -7.500000065e-10 2.249999964e-9 0 0 0
H 3.500000012e-10 -7.500000065e-10 2.249999964e-9 0 0 0
H 2.166686691e-10 -6.557183685e-10 2.249999964e-9 0 0 0
O 2.499999929e-10 -7.500000065e-10 2.750000005e-9 0 0 0
H 3.500000012e-10 -7.500000065e-10 2.750000005e-9 0 0 0
H 2.166686691e-10 -6.557183685e-10 2.750000005e-9 0 0 0
O 2.499999929e-10 -7.500000065e-10 3.250000047e-9 0 0 0
H 3.500000012e-10 -7.500000065e-10 3.250000047e-9 0 0 0
H 2.166686691e-10 -6.557183685e-10 3.250000047e-9 0 0 0
O 2.499999929e-10 -7.500000065e-10 3.749999866e-9 0 0 0
H 3.500000012e-10 -7.500000065e-10 3.749999866e-9 0 0 0
H 2.166686691e-10 -6.557183685e-10 3.749999866e-9 0 0 0
O 2.499999929e-10 -2.499999929e-10 -3.749999866e-9 0 0 0
H 3.500000012e-10 -2.499999929e-10 -3.749999866e-9 0 0 0
H 2.166686691e-10 -1.557183826e-10 -3.749999866e-9 0 0 0
O 2.499999929e-10 -2.499999929e-10 -3.250000047e-9 0 0 0
H 3.500000012e-10 -2.499999929e-10 -3.250000047e-9 0 0 0
H 2.166686691e-10 -1.557183826e-10 -3.250000047e-9 0 0 0
O 2.499999929e-10 -2.499999929e-10 -2.750000005e-9 0 0 0
H 3.500000012e-10 -2.499999929e-10 -2.750000005e-9 0 0 0
H 2.166686691e-10 -1.557183826e-10 -2.750000005e-9 0 0 0
O 2.499999929e-10 -2.499999929e-10 -2.249999964e-9 0 0 0
H 3.500000012e-10 -2.499999929e-10 -2.249999964e-9 0 0 0
H 2.166686691e-10 -1.557183826e-10 -2.249999964e-9 0 0 0
O 2.499999929e-10 -2.499999929e-10 -1.750000034e-9 0 0 0
H 3.500000012e-10 -2.499999929e-10 -1.750000034e-9 0 0 0
H 2.166686691e-10 -1.557183826e-10 -1.750000034e-9 0 0 0
O 2.499999929e-10 -2.499999929e-10 -1.249999992e-9 0 0 0
H 3.500000012e-10 -2.499999929e-10 -1.249999992e-9 0 0 0
H 2.166686691e-10 -1.557183826e-10 -1.249999992e-9 0 0 0
O 2.499999929e-10 -2.499999929e-10 -7.500000065e-10 0 0 0
H 3.500000012e-10 -2.499999929e-10 -7.500000065e-10 0 0 0
H 2.166686691e-10 -1.557183826e-10 -7.500000065e-10 0 0 0
O 2.499999929e-10 -2.499999929e-10 -2.499999929e-10 0 0 0
H 3.500000012e-10 -2.499999929e-10 -2.499999929e-10 0 0 0
H 2.166686691e-10 -1.557183826e-10 -2.499999929e-10 0 0 0
O 2.499999929e-10 -2.499999929e-10 2.499999929e-10 0 0 0
H 3.500000012e-10 -2.499999929e-10 2.499999929e-10 0 0 0
H 2.166686691e-10 -1.557183826e-10 2.499999929e-10 0 0 0
O 2.499999929e-10 -2.499999929e-10 7.500000065e-10 0 0 0
H 3.500000012e-10 -2.499999929e-10 7.500000065e-10 0 0 0
H 2.166686691e-10 -1.557183826e-10 7.500000065e-10 0 0 0
O 2.499999929e-10 -2.499999929e-10 1.249999992e-9 0 0 0
H 3.500000012e-10 -2.499999929e-10 1.249999992e-9 0 0 0
H 2.166686691e-10 -1.557183826e-10 1.249999992e-9 0 0 0
O 2.499999929e-10 -2.499999929e-10 1.750000034e-9 0 0 0
H 3.500000012e-10 -2.499999929e-10 1.750000034e-9 0 0 0
H 2.166686691e-10 -1.557183826e-10 1.750000034e-9 0 0 0
O 2.499999929e-10 -2.499999929e-10 2.249999964e-9 0 0 0
H 3.500000012e-10 -2.499999929e-10 2.249999964e-9 0 0 0
H 2.166686691e-10 -1.557183826e-10 2.249999964e-9 0 0 0
O 2.499999929e-10 -2.499999929e-10 2.750000005e-9 0 0 0
H 3.500000012e-10 -2.499999929e-10 2.750000005e-9 0 0 0
H 2.166686691e-10 -1.557183826e-10 2.750000005e-9 0 0 0
O 2.499999929e-10 -2.499999929e-10 3.250000047e-9 0 0 0
H 3.500000012e-10 -2.499999929e-10 3.250000047e-9 0 0 0
H 2.166686691e-10 -1.557183826e-10 3.250000047e-9 0 0 0
O 2.499999929e-10 -2.499999929e-10 3.749999866e-9 0 0 0
H 3.500000012e-10 -2.499999929e-10 3.749999866e-9 0 0 0
H 2.166686691e-10 -1.557183826e-10 3.749999866e-9 0 0 0
O 2.499999929e-10 2.499999929e-10 -3.749999866e-9 0 0 0
H 3.500000012e-10 2.499999929e-10 -3.749999866e-9 0 0 0
H 2.166686691e-10 3.442816032e-10 -3.749999866e-9 0 0 0
O 2.499999929e-10 2.499999929e-10 -3.250000047e-9 0 0 0
H 3.500000012e-10 2.499999929e-10 -3.250000047e-9 0 0 0
H 2.166686691e-10 3.442816032e-10 -3.250000047e-9 0 0 0
O 2.499999929e-10 2.499999929e-10 -2.750000005e-9 0 0 0
H 3.500000012e-10 2.499999929e-10 -2.750000005e-9 0 0 0
H 2.166686691e-10 3.442816032e-10 -2.750000005e-9 0 0 0
O 2.499999929e-10 2.499999929e-10 -2.249999964e-9 0 0 0
H 3.500000012e-10 2.499999929e-10 -2.249999964e-9 0 0 0
H 2.166686691e-10 3.442816032e-10 -2.249999964e-9 0 0 0
O 2.499999929e-10 2.499999929e-10 -1.750000034e-9 0 0 0
H 3.500000012e-10 2.499999929e-10 -1.750000034e-9 0 0 0
H 2.166686691e-10 3.442816032e-10 -1.750000034e-9 0 0 0
O 2.499999929e-10 2.499999929e-10 -1.249999992e-9 0 0 0
H 3.500000012e-10 2.499999929e-10 -1.249999992e-9 0 0 0
H 2.166686691e-10 3.442816032e-10 -1.249999992e-9 0 0 0
O 2.499999929e-10 2.499999929e-10 -7.500000065e-10 0 0 0
H 3.500000012e-10 2.499999929e-10 -7.500000065e-10 0 0 0
H 2.166686691e-10 3.442816032e-10 -7.500000065e-10 0 0 0
O 2.499999929e-10 2.499999929e-10 -2.499999929e-10 0 0 0
H 3.500000012e-10 2.499999929e-10 -2.499999929e-10 0 0 0
H 2.166686691e-10 3.442816032e-10 -2.499999929e-10 0 0 0
O 2.499999929e-10 2.499999929e-10 2.499999929e-10 0 0 0
H 3.500000012e-10 2.499999929e-10 2.499999929e-10 0 0 0
H 2.166686691e-10 3.442816032e-10 2.499999929e-10 0 0 0
O 2.499999929e-10 2.499999929e-10 7.500000065e-10 0 0 0
H 3.500000012e-10 2.499999929e-10 7.500000065e-10 0 0 0
H 2.166686691e-10 3.442816032e-10 7.500000065e-10 0 0 0
O 2.499999929e-10 2.499999929e-10 1.249999992e-9 0 0 0
H 3.500000012e-10 2.499999929e-10 1.249999992e-9 0 0 0
H 2.166686691e-10 3.442816032e-10 1.249999992e-9 0 0 0
O 2.499999929e-10 2.499999929e-10 1.750000034e-9 0 0 0
H 3.500000012e-10 2.499999929e-10 1.750000034e-9 0 0 0
H 2.166686691e-10 3.442816032e-10 1.750000034e-9 0 0 0
O 2.499999929e-10 2.499999929e-10 2.249999964e-9 0 0 0
H 3.500000012e-10 2.499999929e-10 2.249999964e-9 0 0 0
H 2.166686691e-10 3.442816032e-10 2.249999964e-9 0 0 0
O 2.499999929e-10 2.499999929e-10 2.750000005e-9 0 0 0
H 3.500000012e-10 2.499999929e-10 2.750000005e-9 0 0 0
H 2.166686691e-10 3.442816032e-10 2.750000005e-9 0 0 0